
  ___ ___ ___ _ _ _  
 |   |   |_  | | | | 
 | | | | | . | | | | 
 |__ |  _|___|_____|  0.9.1.9666
 |___|_|             

User:  lopezo1@lanttu
Date:  Tue Apr 30 15:40:28 2013
Arch:  x86_64
Pid:   23957
Dir:   /home/lopezo1/Packages/gpaw/build/lib.linux-x86_64-2.7/gpaw
ase:   /home/lopezo1/Packages/embedding/ase (version 3.6.1)
numpy: /usr/lib/python2.7/dist-packages/numpy (version 1.6.1)
units: Angstrom and eV
cores: 8

Memory estimate
---------------
Process memory now: 23.82 MiB
Calculator  2.29 MiB
    Density  0.96 MiB
        Arrays  0.73 MiB
        Localized functions  0.08 MiB
        Mixer  0.15 MiB
    Hamiltonian  1.04 MiB
        Arrays  0.48 MiB
        XC  0.00 MiB
        Poisson  0.55 MiB
        vbar  0.01 MiB
    Wavefunctions  0.29 MiB
        Arrays psit_nG  0.05 MiB
        Eigensolver  0.18 MiB
        Projectors  0.00 MiB
        Overlap op  0.05 MiB

Positions:
  0 H     3.0000    3.0000    2.6296
  1 H     3.0000    3.0000    3.3704

     .--------------.  
    /|              |  
   / |              |  
  /  |              |  
 *   |              |  
 |   |    H         |  
 |   |    H         |  
 |   .--------------.  
 |  /              /   
 | /              /    
 |/              /     
 *--------------*      

Unit Cell:
           Periodic     X           Y           Z      Points  Spacing
  --------------------------------------------------------------------
  1. axis:    no     6.000000    0.000000    0.000000    32     0.1875
  2. axis:    no     0.000000    6.000000    0.000000    32     0.1875
  3. axis:    no     0.000000    0.000000    6.000000    32     0.1875

H-setup:
  name   : Hydrogen
  id     : 4766778ce56282eaa64abeb28b7c1de3
  Z      : 1
  valence: 1
  core   : 0
  charge : 0.0
  file   : /home/lopezo1/Packages/gpaw-setups-0.8.7929/H.LDA.gz
  cutoffs: 0.48(comp), 0.85(filt), 0.53(core), lmax=2
  valence states:
            energy   radius
    1s(1)   -6.353   0.476
    *s      20.858   0.476
    *p       0.000   0.476

Using partial waves for H as LCAO basis

Using the LDA Exchange-Correlation Functional.
Spin-Paired Calculation
Total Charge:      0.000000
Fermi Temperature: 0.000000
Wave functions: Uniform real-space grid
Kinetic energy operator: 6*3+1=19 point O(h^6) finite-difference Laplacian
Eigensolver:       rmm-diis
XC and Coulomb potentials evaluated on a 64*64*64 grid
Interpolation: tri-quintic (5. degree polynomial)
Poisson solver: Jacobi solver with 5 multi-grid levels
Stencil: 6*3+1=19 point O(h^6) finite-difference Laplacian
Reference Energy:  -24.257925

Total number of cores used: 8
Domain Decomposition: 2 x 2 x 2
MatrixOperator buffer_size: default value or 
                            see value of nblock in input file
Diagonalizer layout: Serial LAPACK
Orthonormalizer layout: Serial LAPACK

Symmetries present: 1
1 k-point (Gamma)
1 k-point in the Irreducible Part of the Brillouin Zone
Linear Mixing Parameter:           0.25
Pulay Mixing with 3 Old Densities
No Damping of Long Wave Oscillations

Convergence Criteria:
Total Energy Change:           0.0005 eV / electron
Integral of Absolute Density Change:    0.0001 electrons
Integral of Absolute Eigenstate Change: 4e-08 eV^2
Number of Atoms: 2
Number of Atomic Orbitals: 2
Number of Bands in Calculation:         2
Bands to Converge:                      Occupied States Only
Number of Valence Electrons:            2
                     log10-error:    Total        Iterations:
           Time      WFS    Density  Energy       Fermi  Poisson
iter:   1  15:40:28  +2.2              -4.555495  0      14     
iter:   2  15:40:28  +1.0              -7.141859  0             
iter:   3  15:40:28  +0.9              -7.394507  0             
iter:   4  15:40:28  -0.7   -0.4       -6.995982  0      7      
iter:   5  15:40:28  +0.2   -0.5       -6.543212  0      8      
iter:   6  15:40:28  -0.7   -1.7       -6.655000  0      4      
iter:   7  15:40:28  -0.9   -1.5       -6.660742  0      4      
iter:   8  15:40:28  -3.1   -1.5       -6.659732  0      5      
iter:   9  15:40:29  -2.0   -1.6       -6.655892  0      6      
iter:  10  15:40:29  -2.6   -2.2       -6.656379  0      5      
iter:  11  15:40:29  -3.2   -2.7       -6.656493  0      4      
iter:  12  15:40:29  -4.7   -3.0       -6.656483  0      3      
iter:  13  15:40:29  -4.8   -3.0       -6.656554  0      3      
iter:  14  15:40:29  -5.8   -3.1       -6.656506  0      3      
iter:  15  15:40:29  -5.9   -3.2       -6.656503  0      2      
iter:  16  15:40:29  -6.4   -3.5       -6.656558  0      2      
iter:  17  15:40:29  -7.0   -3.8       -6.656493  0      1      
iter:  18  15:40:29  -7.0   -4.0       -6.656501  0      1      
iter:  19  15:40:29  -7.5   -4.3       -6.656531  0      1      
------------------------------------
Converged After 19 Iterations.

Energy Contributions Relative to Reference Atoms:(reference = -24.257925)
-------------------------
Kinetic:         +7.239691
Potential:       -8.719905
External:        +0.000000
XC:              -5.154130
Entropy (-ST):   -0.000000
Local:           -0.022186
-------------------------
Free Energy:     -6.656531
Zero Kelvin:     -6.656531

Fermi Level: -4.35655
 Band   Eigenvalues  Occupancy
   0    -10.22338     2.00000
   1      1.51027     0.00000


Dipole Moment: [ -4.50028658e-14  -4.50028658e-14  -4.50028658e-14]

Forces in eV/Ang:
  0 H    -0.00000   -0.00000   -0.83271
  1 H    -0.00000   -0.00000    0.83271
Memory usage: 29.21 MB

============================================================
Timing:                               incl.     excl.
============================================================
Initialization:                       0.240     0.076   5.5% |-|
 Hamiltonian:                         0.151     0.000   0.0% |
  Atomic:                             0.000     0.000   0.0% |
  Communicate energies:               0.013     0.013   1.0% |
  Hartree integrate/restrict:         0.002     0.002   0.1% |
  Initialize Hamiltonian:             0.003     0.003   0.2% |
  Poisson:                            0.116     0.116   8.5% |--|
  XC 3D grid:                         0.016     0.016   1.2% |
  vbar:                               0.000     0.000   0.0% |
 LCAO initialization:                 0.014     0.011   0.8% |
  LCAO eigensolver:                   0.001     0.000   0.0% |
   Atomic Hamiltonian:                0.000     0.000   0.0% |
   Calculate projections:             0.000     0.000   0.0% |
   Distribute overlap matrix:         0.000     0.000   0.0% |
   Orbital Layouts:                   0.000     0.000   0.0% |
   Potential matrix:                  0.000     0.000   0.0% |
  LCAO to grid:                       0.000     0.000   0.0% |
  Set positions (LCAO WFS):           0.002     0.001   0.0% |
   Basic WFS set positions:           0.000     0.000   0.0% |
   Basis functions set positions:     0.000     0.000   0.0% |
   TCI: Calculate S, T, P:            0.001     0.001   0.1% |
SCF-cycle:                            1.116     0.010   0.7% |
 Density:                             0.031     0.000   0.0% |
  Atomic density matrices:            0.000     0.000   0.0% |
  Mix:                                0.027     0.027   2.0% ||
  Multipole moments:                  0.002     0.002   0.1% |
  Pseudo density:                     0.002     0.002   0.1% |
   Symmetrize density:                0.000     0.000   0.0% |
 Hamiltonian:                         0.992     0.003   0.2% |
  Atomic:                             0.000     0.000   0.0% |
  Communicate energies:               0.215     0.215  15.7% |-----|
  Hartree integrate/restrict:         0.030     0.030   2.2% ||
  Poisson:                            0.495     0.495  36.2% |-------------|
  XC 3D grid:                         0.243     0.243  17.7% |------|
  vbar:                               0.006     0.006   0.5% |
 Orthonormalize:                      0.007     0.001   0.0% |
  Band Layouts:                       0.001     0.000   0.0% |
   Inverse Cholesky:                  0.000     0.000   0.0% |
  calc_s_matrix:                      0.003     0.003   0.2% |
  projections:                        0.001     0.001   0.1% |
  rotate_psi:                         0.002     0.002   0.1% |
 RMM-DIIS:                            0.059     0.018   1.3% ||
  Apply hamiltonian:                  0.010     0.010   0.7% |
  precondition:                       0.030     0.030   2.2% ||
  projections:                        0.001     0.001   0.1% |
 Subspace diag:                       0.017     0.002   0.1% |
  Band Layouts:                       0.001     0.000   0.0% |
   Diagonalize:                       0.001     0.001   0.0% |
   Distribute results:                0.000     0.000   0.0% |
  calc_h_matrix:                      0.011     0.003   0.2% |
   Apply hamiltonian:                 0.007     0.007   0.5% |
  rotate_psi:                         0.004     0.004   0.3% |
Other:                                0.013     0.013   0.9% |
============================================================
Total:                                          1.369 100.0%
============================================================
date: Tue Apr 30 15:40:29 2013
