
  ___ ___ ___ _ _ _  
 |   |   |_  | | | | 
 | | | | | . | | | | 
 |__ |  _|___|_____|  0.9.1.9666
 |___|_|             

User:  lopezo1@lanttu
Date:  Tue Apr 30 16:12:16 2013
Arch:  x86_64
Pid:   27758
Dir:   /home/lopezo1/Packages/gpaw/build/lib.linux-x86_64-2.7/gpaw
ase:   /home/lopezo1/Packages/embedding/ase (version 3.6.1)
numpy: /usr/lib/python2.7/dist-packages/numpy (version 1.6.1)
units: Angstrom and eV
cores: 1

Memory estimate
---------------
Process memory now: 27.36 MiB
Calculator  19.40 MiB
    Density  8.15 MiB
        Arrays  6.18 MiB
        Localized functions  0.60 MiB
        Mixer  1.36 MiB
    Hamiltonian  8.72 MiB
        Arrays  4.04 MiB
        XC  0.00 MiB
        Poisson  4.63 MiB
        vbar  0.05 MiB
    Wavefunctions  2.53 MiB
        Arrays psit_nG  0.45 MiB
        Eigensolver  1.59 MiB
        Projectors  0.03 MiB
        Overlap op  0.45 MiB

Positions:
  0 H     3.0000    3.0000    2.6177
  1 H     3.0000    3.0000    3.3824

     .--------------.  
    /|              |  
   / |              |  
  /  |              |  
 *   |              |  
 |   |    H         |  
 |   |    H         |  
 |   .--------------.  
 |  /              /   
 | /              /    
 |/              /     
 *--------------*      

Unit Cell:
           Periodic     X           Y           Z      Points  Spacing
  --------------------------------------------------------------------
  1. axis:    no     6.000000    0.000000    0.000000    32     0.1875
  2. axis:    no     0.000000    6.000000    0.000000    32     0.1875
  3. axis:    no     0.000000    0.000000    6.000000    32     0.1875

H-setup:
  name   : Hydrogen
  id     : 4766778ce56282eaa64abeb28b7c1de3
  Z      : 1
  valence: 1
  core   : 0
  charge : 0.0
  file   : /home/lopezo1/Packages/gpaw-setups-0.8.7929/H.LDA.gz
  cutoffs: 0.48(comp), 0.85(filt), 0.53(core), lmax=2
  valence states:
            energy   radius
    1s(1)   -6.353   0.476
    *s      20.858   0.476
    *p       0.000   0.476

Using partial waves for H as LCAO basis

Using the LDA Exchange-Correlation Functional.
Spin-Paired Calculation
Total Charge:      0.000000
Fermi Temperature: 0.000000
Wave functions: Uniform real-space grid
Kinetic energy operator: 6*3+1=19 point O(h^6) finite-difference Laplacian
Eigensolver:       rmm-diis
XC and Coulomb potentials evaluated on a 64*64*64 grid
Interpolation: tri-quintic (5. degree polynomial)
Poisson solver: Jacobi solver with 5 multi-grid levels
Stencil: 6*3+1=19 point O(h^6) finite-difference Laplacian
Reference Energy:  -24.257925

Total number of cores used: 1
MatrixOperator buffer_size: default value or 
                            see value of nblock in input file
Diagonalizer layout: Serial LAPACK
Orthonormalizer layout: Serial LAPACK

Symmetries present: 1
1 k-point (Gamma)
1 k-point in the Irreducible Part of the Brillouin Zone
Linear Mixing Parameter:           0.25
Pulay Mixing with 3 Old Densities
No Damping of Long Wave Oscillations

Convergence Criteria:
Total Energy Change:           0.0005 eV / electron
Integral of Absolute Density Change:    0.0001 electrons
Integral of Absolute Eigenstate Change: 4e-08 eV^2
Number of Atoms: 2
Number of Atomic Orbitals: 2
Number of Bands in Calculation:         2
Bands to Converge:                      Occupied States Only
Number of Valence Electrons:            2
                     log10-error:    Total        Iterations:
           Time      WFS    Density  Energy       Fermi  Poisson
iter:   1  16:12:16  +2.2              -4.699335  0      14     
iter:   2  16:12:16  +0.9              -7.117146  0             
iter:   3  16:12:16  +0.9              -7.350777  0             
iter:   4  16:12:17  -0.8   -0.4       -6.980983  0      7      
iter:   5  16:12:17  +0.2   -0.6       -6.560990  0      8      
iter:   6  16:12:17  -0.8   -1.7       -6.664957  0      4      
iter:   7  16:12:18  -1.0   -1.5       -6.671480  0      4      
iter:   8  16:12:18  -3.3   -1.4       -6.670687  0      5      
iter:   9  16:12:18  -1.7   -1.5       -6.664881  0      6      
iter:  10  16:12:18  -2.6   -2.6       -6.666145  0      4      
iter:  11  16:12:18  -2.7   -2.6       -6.666211  0      5      
iter:  12  16:12:19  -4.1   -2.6       -6.666267  0      3      
iter:  13  16:12:19  -3.7   -2.7       -6.666291  0      4      
iter:  14  16:12:19  -4.6   -2.6       -6.666245  0      3      
iter:  15  16:12:19  -4.1   -2.7       -6.666224  0      4      
iter:  16  16:12:19  -5.0   -3.1       -6.666296  0      3      
iter:  17  16:12:20  -5.5   -3.1       -6.666244  0      3      
iter:  18  16:12:20  -5.7   -3.5       -6.666235  0      2      
iter:  19  16:12:20  -6.1   -3.8       -6.666274  0      2      
iter:  20  16:12:20  -7.1   -3.8       -6.666233  0      1      
iter:  21  16:12:20  -7.2   -4.2       -6.666232  0      1      
iter:  22  16:12:20  -7.8   -4.6       -6.666255  0      1      
------------------------------------
Converged After 22 Iterations.

Energy Contributions Relative to Reference Atoms:(reference = -24.257925)
-------------------------
Kinetic:         +6.642733
Potential:       -8.320864
External:        +0.000000
XC:              -4.967066
Entropy (-ST):   -0.000000
Local:           -0.021058
-------------------------
Free Energy:     -6.666255
Zero Kelvin:     -6.666255

Fermi Level: -4.37204
 Band   Eigenvalues  Occupancy
   0    -10.10899     2.00000
   1      1.36492     0.00000


Dipole Moment: [  3.19692335e-13   3.20096132e-13   3.20771400e-13]

Forces in eV/Ang:
  0 H     0.00000   -0.00000   -0.00066
  1 H    -0.00000    0.00000    0.00066
Memory usage: 60.34 MB

============================================================
Timing:                               incl.     excl.
============================================================
Initialization:                       0.530     0.050   1.1% |
 Hamiltonian:                         0.472     0.000   0.0% |
  Atomic:                             0.015     0.000   0.0% |
   XC Correction:                     0.015     0.015   0.3% |
  Communicate energies:               0.000     0.000   0.0% |
  Hartree integrate/restrict:         0.002     0.002   0.1% |
  Initialize Hamiltonian:             0.002     0.002   0.0% |
  Poisson:                            0.379     0.379   8.6% |--|
  XC 3D grid:                         0.071     0.071   1.6% ||
  vbar:                               0.001     0.001   0.0% |
 LCAO initialization:                 0.008     0.006   0.1% |
  LCAO eigensolver:                   0.001     0.000   0.0% |
   Atomic Hamiltonian:                0.000     0.000   0.0% |
   Calculate projections:             0.000     0.000   0.0% |
   Distribute overlap matrix:         0.000     0.000   0.0% |
   Orbital Layouts:                   0.000     0.000   0.0% |
   Potential matrix:                  0.000     0.000   0.0% |
  LCAO to grid:                       0.000     0.000   0.0% |
  Set positions (LCAO WFS):           0.001     0.000   0.0% |
   Basic WFS set positions:           0.000     0.000   0.0% |
   Basis functions set positions:     0.000     0.000   0.0% |
   TCI: Calculate S, T, P:            0.001     0.001   0.0% |
SCF-cycle:                            3.832     0.007   0.2% |
 Density:                             0.077     0.000   0.0% |
  Atomic density matrices:            0.001     0.001   0.0% |
  Mix:                                0.072     0.072   1.6% ||
  Multipole moments:                  0.000     0.000   0.0% |
  Pseudo density:                     0.003     0.003   0.1% |
   Symmetrize density:                0.000     0.000   0.0% |
 Hamiltonian:                         3.566     0.004   0.1% |
  Atomic:                             0.295     0.002   0.1% |
   XC Correction:                     0.292     0.292   6.6% |--|
  Communicate energies:               0.000     0.000   0.0% |
  Hartree integrate/restrict:         0.043     0.043   1.0% |
  Poisson:                            1.905     1.905  43.3% |----------------|
  XC 3D grid:                         1.300     1.300  29.6% |-----------|
  vbar:                               0.019     0.019   0.4% |
 Orthonormalize:                      0.008     0.000   0.0% |
  Band Layouts:                       0.000     0.000   0.0% |
   Inverse Cholesky:                  0.000     0.000   0.0% |
  calc_s_matrix:                      0.004     0.004   0.1% |
  projections:                        0.001     0.001   0.0% |
  rotate_psi:                         0.002     0.002   0.1% |
 RMM-DIIS:                            0.137     0.033   0.7% |
  Apply hamiltonian:                  0.022     0.022   0.5% |
  precondition:                       0.081     0.081   1.8% ||
  projections:                        0.001     0.001   0.0% |
 Subspace diag:                       0.037     0.001   0.0% |
  Band Layouts:                       0.001     0.000   0.0% |
   Diagonalize:                       0.000     0.000   0.0% |
   Distribute results:                0.000     0.000   0.0% |
  calc_h_matrix:                      0.029     0.006   0.1% |
   Apply hamiltonian:                 0.023     0.023   0.5% |
  rotate_psi:                         0.006     0.006   0.1% |
Other:                                0.035     0.035   0.8% |
============================================================
Total:                                          4.396 100.0%
============================================================
date: Tue Apr 30 16:12:20 2013
